LAMMPS (21 Nov 2023)
  using 1 OpenMP thread(s) per MPI task
Total wall time: 0:00:02
